# vtk DataFile Version 4.2
vtk output
ASCII
DATASET POLYDATA
POINTS 1593 float
-0.273101 -0.846598 0.557505 -0.27568 -0.846154 0.557505 -0.257949 -0.846154 0.589744 
-0.263008 -0.848341 0.557505 -0.230769 -0.850848 0.589744 -0.230769 -0.85389 0.557505 
-0.179487 -0.86096 0.557505 -0.211726 -0.856521 0.557505 -0.179487 -0.857934 0.589744 
-0.128205 -0.866263 0.557505 -0.160444 -0.862933 0.557505 -0.128205 -0.863248 0.589744 
-0.0769231 -0.869798 0.557505 -0.109162 -0.867578 0.557505 -0.0769231 -0.866791 0.589744 
-0.025641 -0.871565 0.557505 -0.0578796 -0.870456 0.557505 -0.025641 -0.868562 0.589744 
0.025641 -0.871565 0.557505 -0.00659759 -0.871565 0.557505 0.025641 -0.868562 0.589744 
0.0769231 -0.869798 0.557505 0.0446845 -0.870908 0.557505 0.0769231 -0.866791 0.589744 
0.128205 -0.866263 0.557505 0.0959665 -0.868482 0.557505 0.128205 -0.863248 0.589744 
0.179487 -0.86096 0.557505 0.147249 -0.864289 0.557505 0.179487 -0.857934 0.589744 
0.230769 -0.85389 0.557505 0.198531 -0.858329 0.557505 0.230769 -0.850848 0.589744 
0.268495 -0.847395 0.557505 0.27568 -0.846154 0.557505 0.257949 -0.846154 0.589744 
0.263008 -0.848341 0.557505 -0.443515 -0.802559 0.557505 -0.45641 -0.794872 0.589744 
-0.435897 -0.805103 0.557505 -0.435897 -0.801722 0.589744 -0.466619 -0.794872 0.557505 
-0.384615 -0.82029 0.557505 -0.416854 -0.810756 0.557505 -0.384615 -0.816945 0.589744 
-0.333333 -0.833579 0.557505 -0.365572 -0.825237 0.557505 -0.333333 -0.830265 0.589744 
-0.282051 -0.844972 0.557505 -0.31429 -0.837819 0.557505 -0.282051 -0.841682 0.589744 
0.282051 -0.844972 0.557505 0.282051 -0.841682 0.589744 0.284201 -0.844493 0.557505 
0.31429 -0.837819 0.557505 0.333333 -0.833579 0.557505 0.333333 -0.830265 0.589744 
0.384615 -0.82029 0.557505 0.352377 -0.828633 0.557505 0.384615 -0.816945 0.589744 
0.435897 -0.805103 0.557505 0.403659 -0.814637 0.557505 0.435897 -0.801722 0.589744 
0.459002 -0.797416 0.557505 0.466619 -0.794872 0.557505 0.45641 -0.794872 0.589744 
-0.589744 -0.744418 0.557505 -0.591472 -0.74359 0.557505 -0.589744 -0.74359 0.564537 
-0.587233 -0.74552 0.557505 -0.582984 -0.74359 0.589744 -0.5707 -0.752809 0.557505 
-0.538462 -0.763219 0.589744 -0.538462 -0.766966 0.557505 -0.487179 -0.787468 0.557505 
-0.519418 -0.774599 0.557505 -0.487179 -0.783773 0.589744 -0.475753 -0.79159 0.557505 
0.478045 -0.79075 0.557505 0.487179 -0.783773 0.589744 0.487179 -0.787468 0.557505 
0.538462 -0.766966 0.557505 0.506223 -0.779836 0.557505 0.538462 -0.763219 0.589744 
0.589744 -0.74359 0.564537 0.582984 -0.74359 0.589744 0.589744 -0.744418 0.557505 
0.5707 -0.752809 0.557505 0.591472 -0.74359 0.557505 -0.654942 -0.709861 0.557505 
-0.678501 -0.692308 0.589744 -0.641026 -0.717744 0.557505 -0.641026 -0.713536 0.589744 
-0.686065 -0.692308 0.557505 -0.603574 -0.73729 0.557505 -0.621982 -0.727701 0.557505 
-0.589744 -0.74035 0.589744 0.589744 -0.74035 0.589744 0.593773 -0.742387 0.557505 
0.621982 -0.727701 0.557505 0.641026 -0.717744 0.557505 0.641026 -0.713536 0.589744 
0.672148 -0.700191 0.557505 0.686065 -0.692308 0.557505 0.678501 -0.692308 0.589744 
-0.74797 -0.651134 0.557505 -0.755385 -0.641026 0.589744 -0.74359 -0.65427 0.557505 
-0.74359 -0.649471 0.589744 -0.762155 -0.641026 0.557505 -0.692308 -0.688437 0.557505 
-0.724546 -0.666996 0.557505 -0.692308 -0.68374 0.589744 -0.687181 -0.691619 0.557505 
0.691192 -0.689126 0.557505 0.692308 -0.68374 0.589744 0.692308 -0.688437 0.557505 
0.74359 -0.65427 0.557505 0.711351 -0.675711 0.557505 0.74359 -0.649471 0.589744 
0.757775 -0.644162 0.557505 0.762155 -0.641026 0.557505 0.755385 -0.641026 0.589744 
-0.803679 -0.607767 0.557505 -0.81859 -0.589744 0.589744 -0.794872 -0.615203 0.557505 
-0.794872 -0.609769 0.589744 -0.825138 -0.589744 0.557505 -0.780208 -0.62681 0.557505 
0.776818 -0.629419 0.557505 0.794872 -0.609769 0.589744 0.794872 -0.615203 0.557505 
0.816331 -0.59718 0.557505 0.825138 -0.589744 0.557505 0.81859 -0.589744 0.589744 
-0.855508 -0.560584 0.557505 -0.871342 -0.538462 0.589744 -0.846154 -0.569965 0.557505 
-0.846154 -0.563724 0.589744 -0.877695 -0.538462 0.557505 -0.835918 -0.579628 0.557505 
0.835374 -0.580081 0.557505 0.846154 -0.563724 0.589744 0.846154 -0.569965 0.557505 
0.868342 -0.547843 0.557505 0.877695 -0.538462 0.557505 0.871342 -0.538462 0.589744 
-0.904101 -0.508065 0.557505 -0.915385 -0.487179 0.589744 -0.897436 -0.51609 0.557505 
-0.897436 -0.50879 0.589744 -0.921564 -0.487179 0.557505 -0.887746 -0.527108 0.557505 
0.887385 -0.527443 0.557505 0.897436 -0.50879 0.589744 0.897436 -0.51609 0.557505 
0.914899 -0.495204 0.557505 0.921564 -0.487179 0.557505 0.915385 -0.487179 0.589744 
-0.949971 -0.447755 0.557505 -0.952092 -0.435897 0.589744 -0.948718 -0.449593 0.557505 
-0.948718 -0.440847 0.589744 -0.958115 -0.435897 0.557505 -0.93634 -0.466799 0.557505 
0.933942 -0.469974 0.557505 0.948718 -0.440847 0.589744 0.948718 -0.449593 0.557505 
0.956862 -0.437736 0.557505 0.958115 -0.435897 0.557505 0.952092 -0.435897 0.589744 
-0.976865 -0.403659 0.557505 -0.98784 -0.384615 0.557505 -0.981646 -0.384615 0.589744 
0.976865 -0.403659 0.557505 0.98784 -0.384615 0.557505 0.981646 -0.384615 0.589744 
-0.993184 -0.373394 0.557505 -1 -0.358925 0.557505 -1 -0.345652 0.589744 
0.994655 -0.370147 0.557505 1 -0.345652 0.589744 1 -0.358925 0.557505 
-1 0.103299 0.557505 -0.995504 0.112844 0.557505 -1 0.0868395 0.589744 
-0.988187 0.128205 0.557505 -0.980297 0.128205 0.589744 1 0.103299 0.557505 
1 0.0868395 0.589744 0.992683 0.11866 0.557505 0.980297 0.128205 0.589744 
0.988187 0.128205 0.557505 -0.969607 0.160444 0.557505 -0.958532 0.179487 0.557505 
-0.950472 0.179487 0.589744 0.969607 0.160444 0.557505 0.958532 0.179487 0.557505 
0.950472 0.179487 0.589744 -0.95788 0.180436 0.557505 -0.948718 0.182041 0.589744 
-0.948718 0.193879 0.557505 -0.935196 0.212674 0.557505 -0.922077 0.230769 0.557505 
-0.91339 0.230769 0.589744 0.948718 0.193879 0.557505 0.948718 0.182041 0.589744 
0.935599 0.211974 0.557505 0.91339 0.230769 0.589744 0.922077 0.230769 0.557505 
0.949369 0.19293 0.557505 -0.916152 0.237855 0.557505 -0.897436 0.249851 0.589744 
-0.897436 0.26039 0.557505 -0.888902 0.270094 0.557505 -0.878316 0.282051 0.557505 
-0.868929 0.282051 0.589744 0.897436 0.26039 0.557505 0.897436 0.249851 0.589744 
0.88685 0.272347 0.557505 0.868929 0.282051 0.589744 0.878316 0.282051 0.557505 
0.903361 0.253304 0.557505 -0.869859 0.290484 0.557505 -0.846154 0.30476 0.589744 
-0.846154 0.314259 0.557505 -0.837187 0.322723 0.557505 -0.82588 0.333333 0.557505 
-0.815705 0.333333 0.589744 0.846154 0.314259 0.557505 0.846154 0.30476 0.589744 
0.834847 0.32487 0.557505 0.815705 0.333333 0.589744 0.82588 0.333333 0.557505 
0.854611 0.305826 0.557505 -0.818144 0.339831 0.557505 -0.794872 0.350831 0.589744 
-0.794872 0.35948 0.557505 -0.778967 0.37207 0.557505 -0.763034 0.384615 0.557505 
-0.751966 0.384615 0.589744 0.794872 0.35948 0.557505 0.794872 0.350831 0.589744 
0.778939 0.372026 0.557505 0.751966 0.384615 0.589744 0.763034 0.384615 0.557505 
0.802608 0.352983 0.557505 -0.759924 0.386832 0.557505 -0.74359 0.390584 0.589744 
-0.74359 0.398527 0.557505 -0.693805 0.431736 0.557505 -0.692308 0.432731 0.557505 
-0.692308 0.424691 0.589744 -0.724546 0.411192 0.557505 -0.687181 0.435897 0.557505 
-0.674162 0.435897 0.589744 0.692308 0.432731 0.557505 0.692308 0.424691 0.589744 
0.687181 0.435897 0.557505 0.674162 0.435897 0.589744 0.724546 0.411192 0.557505 
0.74359 0.398527 0.557505 0.74359 0.390584 0.589744 0.7467 0.396311 0.557505 
-0.67782 0.441177 0.557505 -0.641026 0.454586 0.589744 -0.673264 0.44375 0.557505 
-0.641026 0.462012 0.557505 -0.592792 0.487179 0.557505 -0.589744 0.487179 0.564342 
-0.596997 0.48499 0.557505 -0.589744 0.481284 0.589744 -0.621982 0.471926 0.557505 
-0.577389 0.487179 0.589744 0.589744 0.487179 0.564342 0.589744 0.481284 0.589744 
0.577389 0.487179 0.589744 0.592792 0.487179 0.557505 0.603291 0.48169 0.557505 
0.621982 0.471926 0.557505 0.641026 0.462012 0.557505 0.641026 0.454586 0.589744 
0.685569 0.43681 0.557505 0.673264 0.44375 0.557505 -0.589744 0.488646 0.557505 
-0.538462 0.504274 0.589744 -0.5707 0.497016 0.557505 -0.538462 0.511229 0.557505 
-0.519418 0.518832 0.557505 -0.487179 0.531753 0.557505 -0.487179 0.524745 0.589744 
-0.482702 0.533368 0.557505 -0.468525 0.538462 0.557505 -0.449003 0.538462 0.589744 
0.487179 0.531753 0.557505 0.487179 0.524745 0.589744 0.473003 0.536846 0.557505 
0.449003 0.538462 0.589744 0.468525 0.538462 0.557505 0.506223 0.524151 0.557505 
0.538462 0.511229 0.557505 0.538462 0.504274 0.589744 0.585156 0.490668 0.557505 
0.589744 0.488646 0.557505 0.5707 0.497016 0.557505 -0.463658 0.540081 0.557505 
-0.435897 0.542822 0.589744 -0.435897 0.549352 0.557505 -0.416854 0.554984 0.557505 
-0.384615 0.564554 0.557505 -0.384615 0.557989 0.589744 -0.365572 0.569482 0.557505 
-0.333333 0.577855 0.557505 -0.333333 0.571259 0.589744 -0.291723 0.587104 0.557505 
-0.282051 0.589249 0.557505 -0.282051 0.582634 0.589744 -0.31429 0.582079 0.557505 
-0.279375 0.589744 0.557505 -0.24359 0.589744 0.589744 0.282051 0.589249 0.557505 
0.282051 0.582634 0.589744 0.279375 0.589744 0.557505 0.24359 0.589744 0.589744 
0.31429 0.582079 0.557505 0.333333 0.577855 0.557505 0.333333 0.571259 0.589744 
0.352377 0.572927 0.557505 0.384615 0.564554 0.557505 0.384615 0.557989 0.589744 
0.403659 0.558922 0.557505 0.435897 0.549352 0.557505 0.435897 0.542822 0.589744 
0.440764 0.547732 0.557505 -0.278482 0.589897 0.557505 -0.230769 0.59195 0.589744 
-0.263008 0.592568 0.557505 -0.230769 0.598135 0.557505 -0.211726 0.600758 0.557505 
-0.179487 0.605212 0.557505 -0.179487 0.599011 0.589744 -0.160444 0.607179 0.557505 
-0.128205 0.610519 0.557505 -0.128205 0.604307 0.589744 -0.109162 0.61183 0.557505 
-0.0769231 0.614058 0.557505 -0.0769231 0.607838 0.589744 -0.0578796 0.614713 0.557505 
-0.025641 0.615827 0.557505 -0.025641 0.609603 0.589744 -0.00659759 0.615827 0.557505 
0.025641 0.615827 0.557505 0.025641 0.609603 0.589744 0.0446845 0.615171 0.557505 
[...]
POINT_DATA 1593
SCALARS scalars float
LOOKUP_TABLE default
0 1.73472e-18 0.0322386 0 0.0322386 0 0 0 0.0322386 
0 0 0.0322386 0 0 0.0322386 0 0 0.0322386 
0 0 0.0322386 0 0 0.0322386 0 0 0.0322386 
0 0 0.0322386 0 0 0.0322386 1.73472e-18 1.73472e-18 0.0322386 
0 0 0.0322386 0 0.0322386 0 0 0 0.0322386 
0 0 0.0322386 1.73472e-18 0 0.0322386 1.73472e-18 0.0322386 0 
0 0 0.0322386 0 0 0.0322386 0 0 0.0322386 
0 0 0.0322386 0 0 0.00703217 0 0.0322386 0 
0.0322386 0 0 0 0.0322386 0 0 0.0322386 0 
0 0 0.0322386 0.00703217 0.0322386 0 0 0 0 
0.0322386 0 0.0322386 0 0 0 0.0322386 0.0322386 0 
0 0 0.0322386 0 0 0.0322386 0 0.0322386 0 
0.0322386 0 0 0 0.0322386 0 0 0.0322386 0 
0 0 0.0322386 0 0 0.0322386 0 0.0322386 0 
0.0322386 0 0 0 0.0322386 0 0 0 0.0322386 
0 0.0322386 0 0.0322386 0 0 0 0.0322386 0 
0 0 0.0322386 0 0.0322386 0 0.0322386 0 0 
0 0.0322386 0 0 0 0.0322386 0 0.0322386 0 
0.0322386 0 0 0 0.0322386 0 0 0 0.0322386 
0 0 0.0322386 0 0 0.0322386 0 0 0.0322386 
0 0.0322386 0 0 0 0.0322386 0 0.0322386 0 
0.0322386 0 0.0322386 0 0 0 0.0322386 0 0 
0.0322386 0 0.0322386 0 0 0 0.0322386 0 0.0322386 
0 0.0322386 0 0 0 0.0322386 0 0 0 
0.0322386 0 0.0322386 0 0.0322386 0 0 0 0.0322386 
0 0 0 0.0322386 0 0.0322386 0 0.0322386 0 
0 0 0.0322386 0 0 0 0.0322386 0 0.0322386 
0 0.0322386 0 0 0 0.0322386 0 0 0 
0.0322386 0 0 0.0322386 0 0.0322386 0 0.0322386 0 
0 0.0322386 0 0 0.0322386 0 0 8.67362e-19 0.0068372 
0 0.0322386 0 0.0322386 0.0068372 0.0322386 0.0322386 8.67362e-19 8.67362e-19 
0 0 0.0322386 0 0 8.67362e-19 0.0322386 0 0 
0 0 0.0322386 0 0 0.0322386 0 0.0322386 0 
0.0322386 0 0 0 0.0322386 0 8.67362e-19 0 0 
0.0322386 0 0 0 0.0322386 0 0 0.0322386 0 
0 0.0322386 0 0 0.0322386 0 0.0322386 0 0.0322386 
0 0 0.0322386 0 0 0.0322386 0 0 0.0322386 
0 0 0.0322386 0 0 0 0 0.0322386 0 
0 0.0322386 0 0 0.0322386 0 0 0.0322386 0 
0 0.0322386 0 0 0.0322386 0 0 0.0322386 0 
0 0.0322386 0 0 0.0322386 0 0 0.0753806 0.0835207 
0.0835207 0.0835207 0.0835207 0.0835207 0.0835207 0.0835207 0.0835207 0.0835207 0.0753806 
0.0835207 0.0835207 0.0835207 0.0835207 0.0835207 0.0835207 0.0835207 0.0835207 0.0835207 
0.0835207 0.0835207 0.0835207 0.0835207 0.0835207 0.0835207 0.0835207 0.0835207 0.0835207 
0.0835207 0.0835207 0.0835207 0.0835207 0.0835207 0.0835207 0.0835207 0.0820761 0.0835207 
0.0835207 0.0835207 0.0820761 0.0835207 0.0835207 0.0835207 0.0835207 0.0835207 0.0835207 
0.0835207 0.0835207 0.0835207 0.0835207 0.0835207 0.0835207 0.0835207 0.0835207 0.0835207 
0.0484671 0.0835207 0.0484671 0.0835207 0.0835207 0.0835207 0.0835207 0.0835207 0.0588064 
0.0835207 0.0588064 0.0835207 0.0835207 0.0835207 0.0835207 0.0503686 0.0835207 0.0503686 
0.0835207 0.0835207 0.0835207 0.0835207 0.0835207 0.0387111 0.0835207 0.0387111 0.0835207 
0.0835207 0.0835207 0.0835207 0.0835207 0.0835207 0.0835207 0.0835207 0.0835207 0.0835207 
0.0835207 0.0835207 0.0835207 0.0548766 0.0835207 0.0835207 0.0548766 0.0835207 0.0835207 
0.0835207 0.0835207 0.0835207 0.0835207 0.0835207 0.0835207 0.0835207 0.0835207 0.0835207 
0.0835207 0.0835207 0.0835207 0.0835207 0.0524008 0.0835207 0.0835207 0.0524008 0.0835207 
0.0835207 0.0835207 0.0835207 0.0835207 0.0835207 0.0835207 0.0430122 0.0835207 0.0774875 
0.0835207 0.0835207 0.0774875 0.0835207 0.0835207 0.0430122 0.0835207 0.0835207 0.0835207 
0.0835207 0.0835207 0.0835207 0.0835207 0.0835207 0.0835207 0.0835207 0.13408 0.134803 
0.134803 0.134803 0.134803 0.134803 0.134803 0.134803 0.13408 0.134803 0.0884381 
0.134803 0.134803 0.134803 0.134803 0.134803 0.134803 0.134803 0.134803 0.134803 
0.134803 0.134803 0.0884381 0.134803 0.134803 0.134803 0.134803 0.134803 0.134803 
0.134803 0.134803 0.134803 0.134803 0.134803 0.134803 0.134803 0.134803 0.134803 
0.134803 0.134803 0.134803 0.134803 0.131004 0.134803 0.134803 0.134803 0.131004 
0.134803 0.134803 0.134803 0.134803 0.134803 0.134803 0.134803 0.113083 0.134803 
0.113083 0.134803 0.134803 0.134803 0.134803 0.134803 0.134803 0.134803 0.134803 
0.134803 0.134803 0.134803 0.134803 0.134803 0.134803 0.122104 0.134803 0.122104 
0.134803 0.134803 0.134803 0.134803 0.134803 0.134803 0.134803 0.134803 0.134803 
0.134803 0.134803 0.0866974 0.134803 0.0866974 0.134803 0.134803 0.103142 0.134803 
0.134803 0.103142 0.134803 0.134803 0.0927251 0.134803 0.134803 0.0927251 0.134803 
0.134803 0.134803 0.134803 0.134803 0.134803 0.134803 0.106831 0.134803 0.134803 
0.106831 0.134803 0.134803 0.134803 0.134803 0.105201 0.134803 0.134803 0.105201 
0.134803 0.134803 0.134803 0.134803 0.134803 0.120033 0.134803 0.134803 0.120033 
0.134803 0.134803 0.134803 0.134803 0.134803 0.134803 0.134803 0.134803 0.102095 
0.134803 0.118247 0.134803 0.126323 0.134803 0.126323 0.134803 0.118247 0.134803 
0.102095 0.134803 0.134803 0.134803 0.134803 0.134803 0.173102 0.186085 0.186085 
0.186085 0.186085 0.186085 0.173102 0.186085 0.186085 0.186085 0.186085 0.186085 
0.186085 0.186085 0.186085 0.186085 0.186085 0.186085 0.186085 0.186085 0.186085 
0.186085 0.165078 0.186085 0.186085 0.186085 0.186085 0.186085 0.165078 0.186085 
0.161349 0.186085 0.186085 0.186085 0.186085 0.186085 0.161349 0.186085 0.186085 
0.186085 0.186085 0.186085 0.186085 0.186085 0.186085 0.186085 0.186085 0.186085 
0.139875 0.186085 0.186085 0.186085 0.139875 0.186085 0.186085 0.186085 0.186085 
0.186085 0.186085 0.186085 0.186085 0.186085 0.173925 0.186085 0.173925 0.186085 
0.186085 0.186085 0.186085 0.186085 0.136834 0.186085 0.136834 0.186085 0.186085 
0.184093 0.184093 0.186085 0.186085 0.186085 0.186085 0.171301 0.186085 0.171301 
0.186085 0.186085 0.186085 0.186085 0.186085 0.186085 0.186085 0.145322 0.186085 
0.145322 0.186085 0.186085 0.186085 0.186085 0.186085 0.186085 0.186085 0.186085 
0.186085 0.186085 0.186085 0.186085 0.186085 0.186085 0.186085 0.186085 0.186085 
0.174778 0.186085 0.186085 0.174778 0.186085 0.186085 0.186085 0.186085 0.186085 
0.186085 0.186085 0.186085 0.186085 0.185302 0.186085 0.186085 0.185302 0.186085 
0.186085 0.186085 0.186085 0.186085 0.186085 0.174903 0.186085 0.186085 0.174903 
0.186085 0.186085 0.186085 0.186085 0.186085 0.186085 0.186085 0.186085 0.186085 
0.186085 0.186085 0.186085 0.186085 0.186085 0.186085 0.186085 0.197874 0.209663 
0.209663 0.197874 0.193575 0.237367 0.237367 0.237367 0.237367 0.237367 0.237367 
0.237367 0.237367 0.237367 0.237367 0.237367 0.237367 0.237367 0.237367 0.237367 
0.193575 0.237367 0.237367 0.237367 0.237367 0.237367 0.237367 0.237367 0.237367 
0.237367 0.237367 0.237367 0.237367 0.237367 0.237367 0.237367 0.237367 0.237367 
0.237367 0.237367 0.237367 0.237367 0.237367 0.237367 0.237367 0.237367 0.237367 
0.237367 0.237367 0.237367 0.237367 0.237367 0.237367 0.237367 0.237367 0.237367 
0.237367 0.237367 0.237367 0.237367 0.237367 0.237367 0.237367 0.237367 0.237367 
0.237367 0.237367 0.237367 0.208322 0.237367 0.208322 0.237367 0.237367 0.213732 
0.213732 0.237367 0.237367 0.201426 0.201426 0.237367 0.237367 0.237367 0.237367 
0.237367 0.237367 0.225276 0.237367 0.225276 0.237367 0.237367 0.237367 0.237367 
0.237367 0.202237 0.237367 0.202237 0.237367 0.237367 0.231006 0.237367 0.237367 
0.231006 0.237367 0.237367 0.235409 0.237367 0.237367 0.235409 0.237367 0.237367 
0.216546 0.237367 0.237367 0.216546 0.237367 0.237367 0.237367 0.237367 0.237367 
0.237367 0.237367 0.202929 0.237367 0.237367 0.202929 0.237367 0.237367 0.237367 
0.237367 0.237367 0.237367 0.237367 0.237367 0.237367 0.237367 0.237367 0.237367 
0.219182 0.237367 0.237367 0.219182 0.237367 0.237367 0.237367 0.237367 0.237367 
0.237367 0.237367 0.237367 0.237367 0.237367 0.237367 0.237367 0.237367 0.237367 
0.237367 0.271202 0.288649 0.288649 0.288649 0.288649 0.288649 0.288649 0.288649 
0.288649 0.288649 0.288649 0.288649 0.288649 0.288649 0.271202 0.288649 0.276217 
0.288649 0.288649 0.288649 0.288649 0.288649 0.288649 0.288649 0.276217 0.288649 
0.288649 0.288649 0.288649 0.288649 0.288649 0.288649 0.288649 0.288649 0.245831 
0.288649 0.288649 0.288649 0.245831 0.288649 0.288649 0.288649 0.288649 0.288649 
0.288649 0.288649 0.288649 0.288649 0.288649 0.288649 0.288649 0.288649 0.288649 
0.288649 0.247069 0.288649 0.247069 0.288649 0.288649 0.288649 0.288649 0.288649 
0.256542 0.288649 0.256542 0.288649 0.288649 0.288649 0.288649 0.288649 0.288649 
0.288649 0.288649 0.288649 0.288649 0.288649 0.288649 0.288649 0.288649 0.288649 
0.288649 0.285071 0.288649 0.285071 0.288649 0.288649 0.288649 0.288649 0.288649 
0.288649 0.288649 0.288649 0.288649 0.288649 0.288649 0.288649 0.288649 0.288649 
0.288649 0.288649 0.288649 0.288649 0.288649 0.288649 0.288649 0.288649 0.288649 
0.272152 0.288649 0.288649 0.272152 0.288649 0.288649 0.288649 0.288649 0.282636 
0.288649 0.288649 0.282636 0.288649 0.288649 0.288649 0.288649 0.250972 0.288649 
0.288649 0.250972 0.288649 0.288649 0.288649 0.288649 0.288649 0.288649 0.254576 
0.288649 0.282109 0.288649 0.288649 0.282109 0.288649 0.288649 0.254576 0.288649 
0.288649 0.288649 0.288649 0.288649 0.288649 0.288649 0.288649 0.288649 0.288649 
0.33114 0.339931 0.339931 0.339931 0.339931 0.339931 0.339931 0.339931 0.339931 
0.339931 0.339931 0.339931 0.33114 0.339931 0.339931 0.339931 0.339931 0.339931 
0.339931 0.339931 0.339931 0.339931 0.339931 0.339931 0.291001 0.339931 0.339931 
0.339931 0.339931 0.339931 0.291001 0.339931 0.339931 0.339931 0.339931 0.339931 
0.339931 0.339931 0.29001 0.339931 0.339931 0.339931 0.29001 0.339931 0.302919 
0.339931 0.339931 0.339931 0.302919 0.339931 0.289087 0.339931 0.339931 0.339931 
0.289087 0.339931 0.339931 0.339931 0.339931 0.339931 0.339083 0.339931 0.339083 
0.339931 0.339931 0.339931 0.339931 0.339931 0.312033 0.339931 0.312033 0.339931 
0.339931 0.339931 0.339931 0.339931 0.339931 0.339931 0.339931 0.339931 0.339931 
0.339931 0.339931 0.327395 0.339931 0.327395 0.339931 0.339931 0.339931 0.339931 
0.339931 0.339931 0.339931 0.291922 0.339931 0.291922 0.339931 0.339931 0.330966 
0.339931 0.339931 0.330966 0.339931 0.339931 0.339931 0.339931 0.339931 0.339931 
0.339931 0.339931 0.339931 0.317904 0.339931 0.339931 0.317904 0.339931 0.339931 
0.339931 0.339931 0.339931 0.339931 0.339931 0.339931 0.339931 0.339931 0.339931 
0.339931 0.339931 0.339931 0.339931 0.305853 0.339931 0.339931 0.305853 0.339931 
0.339931 0.339931 0.339931 0.339931 0.339931 0.339931 0.339931 0.302041 0.339931 
0.315106 0.339931 0.321639 0.339931 0.321639 0.339931 0.315106 0.339931 0.302041 
0.339931 0.339931 0.339931 0.339931 0.339931 0.377144 0.391213 0.391213 0.391213 
0.391213 0.391213 0.391213 0.391213 0.391213 0.391213 0.377144 0.391213 0.361781 
0.391213 0.391213 0.391213 0.391213 0.391213 0.391213 0.391213 0.391213 0.391213 
0.361781 0.391213 0.390775 0.391213 0.391213 0.391213 0.391213 0.391213 0.390775 
0.391213 0.36708 0.391213 0.391213 0.391213 0.391213 0.391213 0.36708 0.391213 
0.391213 0.391213 0.391213 0.391213 0.391213 0.391213 0.391213 0.391213 0.391213 
0.391213 0.391213 0.391213 0.391213 0.391213 0.391213 0.391213 0.391213 0.391213 
0.391213 0.391213 0.391213 0.391213 0.391213 0.391213 0.391213 0.391213 0.347148 
0.391213 0.347148 0.391213 0.364636 0.391213 0.364636 0.391213 0.366863 0.391213 
0.366863 0.391213 0.354479 0.391213 0.354479 0.391213 0.391213 0.391213 0.391213 
0.391213 0.391213 0.361211 0.391213 0.361211 0.391213 0.391213 0.391213 0.391213 
0.391213 0.391213 0.391213 0.391213 0.391213 0.347305 0.391213 0.347305 0.391213 
0.391213 0.342909 0.391213 0.391213 0.342909 0.391213 0.391213 0.391213 0.391213 
0.391213 0.391213 0.391213 0.3538 0.391213 0.391213 0.3538 0.391213 0.391213 
0.391213 0.391213 0.349487 0.391213 0.391213 0.349487 0.391213 0.391213 0.391213 
0.391213 0.391213 0.351572 0.391213 0.389325 0.391213 0.391213 0.389325 0.391213 
0.391213 0.351572 0.391213 0.391213 0.391213 0.391213 0.391213 0.391213 0.391213 
0.391213 0.391213 0.391213 0.391213 0.391213 0.391213 0.41198 0.437409 0.442495 
0.442495 0.442495 0.442495 0.442495 0.437409 0.442495 0.41198 0.430404 0.442495 
0.442495 0.442495 0.442495 0.442495 0.442495 0.442495 0.442495 0.442495 0.442495 
0.442495 0.430404 0.442495 0.442495 0.442495 0.442495 0.442495 0.442495 0.442495 
0.442495 0.442495 0.442495 0.442495 0.442495 0.442495 0.442495 0.442495 0.410692 
0.442495 0.442495 0.442495 0.410692 0.442495 0.428011 0.442495 0.442495 0.442495 
0.428011 0.442495 0.421674 0.442495 0.442495 0.442495 0.421674 0.442495 0.392732 
0.442495 0.442495 0.442495 0.392732 0.442495 0.442495 0.442495 0.442495 0.442495 
0.403757 0.442495 0.403757 0.442495 0.442495 0.442495 0.442495 0.442495 0.442495 
0.442495 0.442495 0.442495 0.442495 0.442495 0.442495 0.442495 0.442495 0.442495 
0.442495 0.41434 0.442495 0.41434 0.442495 0.442495 0.442495 0.442495 0.442495 
0.410485 0.442495 0.410485 0.442495 0.442495 0.437657 0.442495 0.442495 0.437657 
0.442495 0.442495 0.442495 0.442495 0.442495 0.433371 0.442495 0.442495 0.433371 
0.442495 0.442495 0.442495 0.403334 0.442495 0.442495 0.403334 0.442495 0.442495 
0.442495 0.423149 0.442495 0.442495 0.423149 0.442495 0.442495 0.442495 0.442495 
0.406082 0.442495 0.442495 0.406082 0.442495 0.442495 0.442495 0.442495 0.442495 
0.442495 0.419403 0.442495 0.442495 0.419403 0.442495 0.442495 0.442495 0.442495 
0.442495 0.442495 0.442495 0.442495 0.442495 0.442495 0.442495 0.442495 0.442495 

NORMALS Normals float
0.185792 0.978015 -0.0941462 0.187605 0.977678 -0.0941932 0.176171 0.978922 -0.103321 
0.178714 0.979243 -0.0939066 0.157112 0.982229 -0.102676 0.156274 0.983278 -0.0932183 
0.120992 0.988325 -0.0923164 0.143102 0.985178 -0.0928658 0.12164 0.987348 -0.101727 
0.0861244 0.992034 -0.0916412 0.107975 0.989722 -0.0920524 0.086585 0.99111 -0.101016 
0.0515548 0.994472 -0.0911917 0.0732184 0.992952 -0.0914654 0.0518303 0.993582 -0.100542 
0.0171649 0.99568 -0.0909671 0.0387159 0.994927 -0.0911038 0.0172566 0.994807 -0.100306 
-0.0171649 0.99568 -0.0909671 0.00434852 0.99568 -0.0909671 -0.0172566 0.994807 -0.100306 
-0.0515548 0.994472 -0.0911917 -0.0300038 0.995225 -0.0910549 -0.0518303 0.993582 -0.100542 
-0.0861244 0.992034 -0.0916412 -0.0644608 0.993554 -0.0913675 -0.086585 0.99111 -0.101016 
-0.120992 0.988325 -0.0923164 -0.0991419 0.990637 -0.0919052 -0.12164 0.987348 -0.101727 
-0.156274 0.983278 -0.0932183 -0.134165 0.986424 -0.0926688 -0.157112 0.982229 -0.102676 
-0.182567 0.978552 -0.0940226 -0.187605 0.977678 -0.0941932 -0.176171 0.978922 -0.103321 
-0.178714 0.979243 -0.0939066 0.310718 0.945138 -0.100039 0.322431 0.940122 -0.110496 
0.304823 0.947147 -0.0996755 0.306556 0.945531 -0.109518 0.328461 0.939057 -0.101046 
0.266325 0.958894 -0.0976466 0.290445 0.951577 -0.098883 0.267838 0.957461 -0.107384 
0.228787 0.968714 -0.0958768 0.252305 0.962597 -0.0969546 0.230085 0.967433 -0.10552 
0.192104 0.976811 -0.0943535 0.215087 0.971762 -0.0952854 0.193192 0.975641 -0.103928 
-0.192104 0.976811 -0.0943535 -0.193192 0.975641 -0.103928 -0.193631 0.976492 -0.0944287 
-0.215087 0.971762 -0.0952854 -0.228787 0.968714 -0.0958768 -0.230085 0.967433 -0.10552 
-0.266325 0.958894 -0.0976466 -0.242806 0.965011 -0.0965687 -0.267838 0.957461 -0.107384 
-0.304823 0.947147 -0.0996755 -0.280702 0.954464 -0.0984391 -0.306556 0.945531 -0.109518 
-0.322565 0.941066 -0.100683 -0.328461 0.939057 -0.101046 -0.322431 0.940122 -0.110496 
0.428932 0.896842 -0.108058 0.430415 0.896118 -0.108173 0.429496 0.896307 -0.110302 
0.426815 0.897842 -0.107927 0.425813 0.897085 -0.117988 0.412926 0.904223 -0.106857 
0.388412 0.914268 -0.115108 0.386082 0.91644 -0.104936 0.344622 0.933141 -0.102077 
0.370593 0.922747 -0.103819 0.346704 0.931252 -0.1121 0.335608 0.936435 -0.101481 
-0.337474 0.935763 -0.101642 -0.346704 0.931252 -0.1121 -0.344622 0.933141 -0.102077 
-0.386082 0.91644 -0.104936 -0.36011 0.926834 -0.103194 -0.388412 0.914268 -0.115108 
-0.429496 0.896307 -0.110302 -0.425813 0.897085 -0.117988 -0.428932 0.896842 -0.108058 
-0.412926 0.904223 -0.106857 -0.430415 0.896118 -0.108173 0.487302 0.865519 -0.113165 
0.512137 0.849641 -0.125801 0.474429 0.873101 -0.111962 0.477469 0.870059 -0.122561 
0.515846 0.848799 -0.115644 0.441129 0.890534 -0.109061 0.457416 0.882075 -0.110444 
0.431655 0.894225 -0.118473 -0.431655 0.894225 -0.118473 -0.432441 0.895091 -0.108374 
-0.457416 0.882075 -0.110444 -0.474429 0.873101 -0.111962 -0.477469 0.870059 -0.122561 
-0.502972 0.856381 -0.114441 -0.515846 0.848799 -0.115644 -0.512137 0.849641 -0.125801 
0.577146 0.807356 -0.121885 0.588636 0.797236 -0.133872 0.572638 0.810713 -0.12139 
0.576499 0.806277 -0.132536 0.591622 0.796676 -0.123371 0.521843 0.845034 -0.116241 
0.553671 0.823715 -0.119386 0.52542 0.84129 -0.12714 0.51691 0.848135 -0.115744 
-0.520779 0.845698 -0.116141 -0.52542 0.84129 -0.12714 -0.521843 0.845034 -0.116241 
-0.572638 0.810713 -0.12139 -0.540811 0.832032 -0.118245 -0.576499 0.806277 -0.132536 
-0.587115 0.800033 -0.122875 -0.591622 0.796676 -0.123371 -0.588636 0.797236 -0.133872 
0.636664 0.75994 -0.128592 0.657776 0.739676 -0.142166 0.62685 0.768584 -0.127392 
0.631348 0.762953 -0.138935 0.660387 0.739307 -0.131304 0.610989 0.781315 -0.125512 
-0.607483 0.783945 -0.125251 -0.631348 0.762953 -0.138935 -0.62685 0.768584 -0.127392 
-0.650573 0.747951 -0.130104 -0.660387 0.739307 -0.131304 -0.657776 0.739676 -0.142166 
0.696415 0.703983 -0.135993 0.720778 0.67661 -0.150593 0.685104 0.715836 -0.134459 
0.690317 0.708527 -0.146462 0.723069 0.67651 -0.139383 0.67302 0.727403 -0.132863 
-0.672471 0.72774 -0.132899 -0.690317 0.708527 -0.146462 -0.685104 0.715836 -0.134459 
-0.711758 0.688362 -0.137849 -0.723069 0.67651 -0.139383 -0.720778 0.67661 -0.150593 
0.757168 0.636405 -0.144305 0.777892 0.607933 -0.159065 0.748449 0.647462 -0.142993 
0.754413 0.637708 -0.155532 0.779927 0.608168 -0.147527 0.735959 0.661908 -0.141159 
-0.73556 0.662064 -0.141217 -0.754413 0.637708 -0.155532 -0.748449 0.647462 -0.142993 
-0.771208 0.619225 -0.146215 -0.779927 0.608168 -0.147527 -0.777892 0.607933 -0.159065 
0.819315 0.551991 -0.153887 0.82854 0.534242 -0.167649 0.817742 0.554522 -0.153519 
0.824306 0.541059 -0.166659 0.829587 0.536031 -0.156123 0.800507 0.579355 -0.150699 
-0.797163 0.583334 -0.150347 -0.824306 0.541059 -0.166659 -0.817742 0.554522 -0.153519 
-0.828015 0.538563 -0.155756 -0.829587 0.536031 -0.156123 -0.82854 0.534242 -0.167649 
0.855783 0.489579 -0.162217 0.87116 0.461976 -0.166044 0.86995 0.459911 -0.177955 
-0.855783 0.489579 -0.162217 -0.87116 0.461976 -0.166044 -0.86995 0.459911 -0.177955 
0.879578 0.444769 -0.168156 0.890062 0.421975 -0.170992 0.898181 0.39853 -0.185592 
-0.881644 0.439183 -0.16888 -0.898181 0.39853 -0.185592 -0.890062 0.421975 -0.170992 
0.882865 -0.418789 -0.211476 0.875597 -0.433241 -0.211104 0.890807 -0.395553 -0.223608 
0.864163 -0.457006 -0.210422 0.860018 -0.45955 -0.221773 -0.882865 -0.418789 -0.211476 
-0.890807 -0.395553 -0.223608 -0.871431 -0.442555 -0.210794 -0.860018 -0.45955 -0.221773 
-0.864163 -0.457006 -0.210422 0.837785 -0.502971 -0.208886 0.822136 -0.529962 -0.207721 
0.817878 -0.532234 -0.218636 -0.837785 -0.502971 -0.208886 -0.822136 -0.529962 -0.207721 
-0.817878 -0.532234 -0.218636 0.821317 -0.531242 -0.207658 0.815671 -0.53568 -0.218467 
0.809625 -0.549085 -0.206897 0.790617 -0.575222 -0.20656 0.772308 -0.600792 -0.206123 
0.766368 -0.604537 -0.217289 -0.809625 -0.549085 -0.206897 -0.815671 -0.53568 -0.218467 
-0.791317 -0.574655 -0.206459 -0.766368 -0.604537 -0.217289 -0.772308 -0.600792 -0.206123 
-0.810445 -0.547806 -0.20696 0.764569 -0.610342 -0.205912 0.745527 -0.630255 -0.216723 
0.740056 -0.640289 -0.20541 0.729086 -0.652555 -0.205115 0.715503 -0.667886 -0.204652 
0.708948 -0.671537 -0.215478 -0.740056 -0.640289 -0.20541 -0.745527 -0.630255 -0.216723 
-0.726473 -0.655619 -0.204948 -0.708948 -0.671537 -0.215478 -0.715503 -0.667886 -0.204652 
-0.747796 -0.630739 -0.205621 0.70534 -0.678298 -0.204313 0.681582 -0.699577 -0.214565 
0.676872 -0.707309 -0.203566 0.666387 -0.717097 -0.203241 0.653155 -0.72951 -0.202735 
0.645948 -0.733005 -0.213201 -0.676872 -0.707309 -0.203566 -0.681582 -0.699577 -0.214565 